; NVT equilibration: 100 ps at 300 K
integrator              = md
nsteps                  = 50000
dt                      = 0.002

; Output control
nstxout-compressed      = 500
nstenergy               = 500
nstlog                  = 500

; Bonds and neighbor searching
continuation            = no
constraint_algorithm    = lincs
constraints             = h-bonds
lincs_iter              = 1
lincs_order             = 4
cutoff-scheme           = Verlet
nstlist                 = 10
rcoulomb                = 1.0
rvdw                    = 1.0
DispCorr                = EnerPres

; Electrostatics
coulombtype             = PME
pme_order               = 4
fourierspacing          = 0.16

; Temperature coupling
tcoupl                  = V-rescale
tc-grps                 = System
tau_t                   = 0.1
ref_t                   = 300

; No pressure coupling during NVT
pcoupl                  = no
pbc                     = xyz

; Generate the initial velocities after minimization
gen_vel                 = yes
gen_temp                = 300
gen_seed                = -1

